define                  = -DPOSRES
; Run parameters
integrator              = md
dt                      = 0.002
nsteps                  = 5000                 ; 5000 * 0.002 ps = 100 ps for each window
; Output control 
nstxout                 = 0                    ; no coordinates
nstvout                 = 0                    ; no velocities
nstfout                 = 0                    ; no forces 
nstxout-compressed      = 10000                ; compressed coordinates, velocities and forces every 20 ps
nstenergy               = 1000                 ; energies every 2 ps
nstlog                  = 1000                 ; log file output every 2 ps
; Bond parameters
continuation            = no                   ; Restarting after NVT 
constraint_algorithm    = lincs                ; holonomic constraints 
constraints             = h-bonds              ; bonds involving H are constrained
lincs_iter              = 1                    ; accuracy of LINCS
lincs_order             = 4                    ; also related to accuracy
; Nonbonded settings
cutoff-scheme           = Verlet
ns_type                 = grid                 ; search neighboring grid cells
rcoulomb                = 1.0                  ; short-range electrostatic cutoff (in nm)
rvdw                    = 1.0                  ; short-range van der Waals cutoff (in nm)
DispCorr                = EnerPres             ; account for cut-off vdW scheme
; Electrostatics
coulombtype             = PME                  ; Particle Mesh Ewald for long-range 
pme_order               = 4                    ; cubic interpolation
fourierspacing          = 0.16                 ; grid spacing for FFT
; Temperature couplling is on
tcoupl                  = V-rescale
tc-grps                 = Protein Non-Protein
tau_t                   = 0.1 0.1
ref_t                   = 298 298
; Pressure coupling is on
pcoupl                  = parrinello-rahman
pcoupltype              = isotropic             ; uniform scaling of box vectors
ref_p                   = 1.0                   ; reference pressure, in bar
tau_p                   = 2.0                   ; time constant, in ps
compressibility         = 4.5e-5                ; isothermal compressibility of water, bar^-1
refcoord_scaling        = com
; Periodic boundary conditions
pbc                     = xyz                   ; 3-D PBC
; Velocity generation
gen_vel                 = yes                   ; Velocity generation is off 
gen_temp                = 298

; Pull code
pull                    = yes
pull_ncoords            = 1                     ; only one reaction coordinate
pull_ngroups            = 2                     ; two groups defining one reaction coordinate
pull_group1_name        = tail_COM
pull_group2_name        = active_site_COM
pull_coord1_type        = umbrella              ; harmonic potential
pull_coord1_geometry    = distance              ; simple distance increase
pull_coord1_dim         = Y Y Y                 ; pull along all dimensions
pull_coord1_groups      = 1 2                   ; groups 1 (tail_COM) and 2 (active_site_COM) define the reaction coordinate
pull_coord1_start       = yes                   ; define initial COM distance > 0
pull_coord1_rate        = 0                     ; restrain in place 
pull_coord1_k           = 1000                  ; kJ mol^-1 nm^-2